# vtk DataFile Version 3.0
153 272 2 1 2 424301
ASCII
DATASET POLYDATA
POINTS 306 float
-115.560000 -117.410000 0.000000
-68.491000 -104.440000 0.000000
-37.772000 -93.438000 0.000000
-16.507000 -86.864000 0.000000
0.694150 -81.663000 0.000000
16.342000 -78.685000 0.000000
31.082000 -73.290000 0.000000
46.934000 -68.992000 0.000000
62.948000 -61.937000 0.000000
86.579000 -56.759000 0.000000
115.580000 -46.629000 0.000000
165.540000 -31.180000 0.000000
276.380000 3.367400 0.000000
780.470000 171.230000 0.000000
121.800000 50.418000 0.000000
43.236000 28.817000 0.000000
22.641000 22.580000 0.000000
-115.150000 -116.900000 11.165000
-68.406000 -104.180000 8.430900
-37.704000 -93.151000 6.683500
-16.510000 -86.661000 5.765000
0.701050 -84.209000 5.380000
16.280000 -78.501000 4.985900
30.722000 -72.563000 4.771100
47.308000 -69.554000 4.940700
63.005000 -61.979000 5.066000
87.291000 -57.194000 5.788700
117.060000 -47.168000 6.828700
163.620000 -30.754000 8.805800
273.200000 3.497400 13.901000
304.650000 62.595000 17.807000
106.840000 44.231000 7.304900
43.144000 28.754000 3.313000
22.599000 22.534000 2.045200
-109.940000 -111.450000 23.135000
-65.724000 -99.901000 17.628000
-37.467000 -92.390000 14.609000
-16.534000 -86.500000 12.798000
0.652840 -83.775000 12.062000
16.168000 -78.117000 11.353000
30.597000 -72.309000 11.052000
45.311000 -66.704000 11.220000
63.117000 -62.085000 12.174000
83.683000 -54.856000 13.625000
112.560000 -45.351000 16.364000
160.670000 -30.117000 21.812000
261.510000 3.431800 34.501000
182.200000 36.974000 26.142000
91.368000 37.830000 14.254000
39.499000 26.328000 6.877800
22.411000 22.346000 4.593100
-100.860000 -102.000000 38.829000
-36.700000 -90.240000 26.261000
0.498250 -77.777000 20.776000
30.258000 -71.571000 20.525000
61.046000 -60.066000 22.383000
111.070000 -44.666000 30.954000
213.850000 2.445700 55.229000
71.355000 29.548000 20.717000
21.880000 21.805000 8.318900
-91.508000 -92.321000 54.068000
-34.983000 -85.751000 38.419000
0.455870 -77.727000 32.076000
28.908000 -68.480000 30.480000
60.544000 -59.529000 34.584000
100.850000 -40.572000 44.096000
107.120000 0.606620 43.894000
54.623000 22.621000 24.508000
20.928000 20.855000 12.278000
-50.437000 -50.618000 51.956000
-30.687000 -74.879000 58.785000
0.345840 -71.626000 51.911000
26.341000 -62.476000 49.014000
55.393000 -54.413000 55.963000
72.100000 -29.144000 56.050000
51.779000 0.173420 37.492000
35.898000 14.868000 28.218000
18.348000 18.267000 18.848000
-16.918000 -16.942000 41.553000
0.074508 -27.899000 48.417000
18.443000 -18.244000 44.928000
20.031000 0.055376 34.613000
11.367000 11.302000 27.735000
0.060839 0.021630 35.997000
-222.740000 -151.040000 0.000000
-306.180000 -127.060000 0.000000
-168.920000 -33.059000 0.000000
-55.994000 0.111480 0.000000
-35.289000 7.087600 0.000000
-25.840000 10.752000 0.000000
-16.600000 11.124000 0.000000
-14.113000 14.158000 0.000000
-11.079000 16.639000 0.000000
-6.098200 14.779000 0.000000
-3.098000 15.685000 0.000000
0.019432 15.989000 0.000000
3.926500 19.589000 0.000000
7.681700 18.448000 0.000000
13.350000 19.920000 0.000000
-209.680000 -142.030000 17.090000
-292.880000 -121.590000 20.002000
-152.850000 -30.003000 9.404000
-55.877000 0.105510 3.413900
-35.214000 7.066900 2.202600
-25.781000 10.725000 1.721200
-16.570000 11.103000 1.237500
-14.080000 14.123000 1.240100
-8.852100 13.284000 0.994550
-6.087600 14.752000 0.999490
-3.095800 15.655000 1.001800
0.017753 15.957000 1.005500
3.922700 19.557000 1.269900
7.665200 18.412000 1.275900
13.322000 19.879000 1.526200
-187.950000 -127.080000 33.365000
-223.870000 -92.908000 34.822000
-124.320000 -24.490000 17.970000
-51.452000 0.079253 7.320800
-34.906000 6.998800 5.070600
-25.573000 10.639000 3.947700
-16.431000 11.010000 2.829900
-13.963000 14.006000 2.831700
-8.774200 13.169000 2.270100
-6.036100 14.629000 2.272700
-3.070100 15.523000 2.273700
0.027784 15.820000 2.286400
3.890900 19.391000 2.859500
7.594800 18.264000 2.860700
13.223000 19.717000 3.443700
-150.010000 -62.232000 43.461000
-46.336000 0.056614 12.365000
-21.388000 8.890100 6.189500
-13.624000 13.666000 5.163500
-5.884400 14.274000 4.142400
0.026934 15.438000 4.149400
7.418700 17.818000 5.194900
-102.430000 -42.477000 45.921000
-44.298000 0.046261 18.320000
-20.450000 8.498400 9.167500
-13.029000 13.068000 7.644000
-5.624500 13.648000 6.127200
0.042388 18.455000 7.669500
7.095100 17.040000 7.670000
-50.773000 -21.049000 39.963000
-32.309000 0.018582 23.490000
-17.906000 7.432900 14.098000
-11.395000 11.438000 11.756000
-6.138700 14.927000 11.768000
0.044340 16.158000 11.774000
6.224200 14.923000 11.776000
-19.930000 0.007336 34.640000
-8.438600 8.475700 20.790000
0.050909 11.980000 20.803000
-22.617000 -22.675000 0.000000
-13.315000 -19.989000 0.000000
-7.640500 -18.500000 0.000000
-3.104400 -15.708000 0.000000
0.018731 -16.008000 0.000000
3.145900 -15.701000 0.000000
6.142400 -14.780000 0.000000
8.906000 -13.295000 0.000000
11.334000 -11.306000 0.000000
13.320000 -8.878400 0.000000
18.493000 -7.634800 0.000000
27.473000 -5.428100 0.000000
40.008000 0.055679 0.000000
90.177000 18.086000 0.000000
250.650000 103.560000 0.000000
39.908000 26.606000 0.000000
19.809000 19.763000 0.000000
-22.575000 -22.629000 2.039800
-13.292000 -19.949000 1.525600
-7.620900 -18.463000 1.270900
-3.098600 -15.677000 1.011500
0.017997 -15.978000 1.006800
3.141300 -15.671000 1.004900
6.132400 -14.752000 0.997930
8.889800 -13.269000 0.993090
11.309000 -11.282000 0.991320
13.291000 -8.860000 0.990750
18.453000 -7.618900 1.235400
27.419000 -5.414000 1.721200
39.923000 0.057617 2.452400
89.981000 18.056000 5.634400
250.320000 103.400000 17.408000
39.826000 26.548000 3.055200
19.774000 19.724000 1.787600
-22.386000 -22.439000 4.582800
-13.186000 -19.783000 3.436200
-7.560000 -18.318000 2.861200
-3.074600 -15.546000 2.281700
0.023108 -15.852000 2.281200
3.114000 -15.540000 2.276300
6.079700 -14.629000 2.269100
8.824000 -13.167000 2.269200
11.215000 -11.189000 2.263000
13.180000 -8.784900 2.262000
18.300000 -7.553100 2.823800
27.193000 -5.366900 3.946800
39.586000 0.059909 5.636100
81.483000 16.350000 11.837000
237.300000 97.997000 37.322000
39.499000 26.328000 6.877800
19.607000 19.558000 4.012000
-21.851000 -21.893000 8.302900
-7.376700 -17.865000 5.184200
0.016730 -15.462000 4.140700
5.931100 -14.273000 4.131000
10.942000 -10.916000 4.126500
17.855000 -7.369400 5.154100
38.633000 0.065983 10.296000
181.860000 75.127000 53.012000
19.145000 19.086000 7.278600
-20.902000 -20.935000 12.264000
-7.061100 -17.085000 7.660100
0.011756 -14.787000 6.122900
5.672200 -13.652000 6.113600
10.465000 -10.438000 6.106500
17.080000 -7.045200 7.628600
36.952000 0.068334 15.252000
129.770000 53.637000 58.328000
18.315000 18.256000 10.746000
-18.293000 -18.317000 18.814000
-7.413800 -17.944000 14.106000
0.007016 -12.944000 9.401900
4.966900 -11.949000 9.391800
11.456000 -11.415000 11.731000
17.945000 -7.392500 14.075000
32.366000 0.069573 23.464000
68.852000 28.492000 54.117000
18.348000 18.267000 18.848000
-12.697000 -12.712000 31.173000
0.013324 -11.982000 20.771000
9.917700 -9.858500 24.213000
22.032000 0.064509 38.070000
15.652000 15.532000 38.147000
0.068785 0.024747 39.995000
-46.572000 -31.202000 0.000000
-125.810000 -52.147000 0.000000
-86.362000 -17.042000 0.000000
-35.996000 0.044027 0.000000
-23.529000 4.708300 0.000000
-18.462000 7.672700 0.000000
-13.290000 8.900400 0.000000
-11.294000 11.322000 0.000000
-6.654300 9.979100 0.000000
-4.578200 11.085000 0.000000
-2.326900 11.765000 0.000000
0.012336 11.993000 0.000000
3.139700 15.677000 0.000000
6.139100 14.766000 0.000000
11.121000 16.604000 0.000000
-43.157000 -28.903000 3.313500
-110.770000 -45.912000 7.548600
-82.266000 -16.250000 5.163900
-35.921000 0.041529 2.219200
-23.481000 4.696600 1.482700
-18.425000 7.656000 1.236500
-13.262000 8.882000 0.992250
-11.270000 11.297000 0.994040
-6.639500 9.959200 0.749280
-4.568600 11.062000 0.752350
-2.322500 11.740000 0.754420
0.013181 11.968000 0.756240
3.133500 15.644000 1.013200
6.127400 14.736000 1.016800
11.099000 16.571000 1.268900
-42.806000 -28.663000 7.445500
-91.519000 -37.932000 14.244000
-77.692000 -15.363000 11.287000
-35.619000 0.038270 5.084000
-23.285000 4.656000 3.393100
-18.272000 7.591600 2.827800
-13.150000 8.807000 2.265900
-11.176000 11.204000 2.267200
-6.584100 9.876300 1.704600
-4.529900 10.971000 1.706500
-2.302900 11.644000 1.708800
0.013239 11.870000 1.711100
3.108600 15.515000 2.284600
6.076000 14.614000 2.288500
11.012000 16.434000 2.862300
-71.427000 -29.603000 20.707000
-34.755000 0.031858 9.284200
-17.827000 7.405900 5.160900
-10.905000 10.931000 4.134100
-4.419600 10.704000 3.105600
0.014944 11.581000 3.110600
5.931700 14.260000 4.154500
-54.626000 -22.640000 24.488000
-36.920000 0.032100 15.272000
-17.050000 7.079100 7.643700
-10.427000 10.452000 6.118700
-4.225500 10.238000 4.593300
0.024788 14.764000 6.129800
5.675000 13.639000 6.135700
-38.836000 -16.097000 30.561000
-32.309000 0.018582 23.490000
-17.906000 7.432900 14.098000
-9.123200 9.151500 9.407500
-4.918900 11.949000 9.414400
0.027055 12.928000 9.414100
6.224200 14.923000 11.776000
-21.905000 0.012193 38.111000
-8.438600 8.475700 20.790000
0.050909 11.980000 20.803000
POLYGONS 544 2176
3 0 1 18
3 18 17 0
3 1 2 19
3 19 18 1
3 2 3 20
3 20 19 2
3 3 4 21
3 21 20 3
3 4 5 22
3 22 21 4
3 5 6 23
3 23 22 5
3 6 7 24
3 24 23 6
3 7 8 25
3 25 24 7
3 8 9 26
3 26 25 8
3 9 10 27
3 27 26 9
3 10 11 28
3 28 27 10
3 11 12 29
3 29 28 11
3 12 13 30
3 30 29 12
3 13 14 31
3 31 30 13
3 14 15 32
3 32 31 14
3 15 16 33
3 33 32 15
3 33 50 49
3 49 32 33
3 32 49 48
3 48 31 32
3 31 48 47
3 47 30 31
3 30 47 46
3 46 29 30
3 29 46 45
3 45 28 29
3 28 45 44
3 44 27 28
3 27 44 43
3 43 26 27
3 26 43 42
3 42 25 26
3 25 42 41
3 41 24 25
3 24 41 40
3 40 23 24
3 23 40 39
3 39 22 23
3 22 39 38
3 38 21 22
3 21 38 37
3 37 20 21
3 20 37 36
3 36 19 20
3 19 36 35
3 35 18 19
3 18 35 34
3 34 17 18
3 51 34 35
3 35 36 52
3 52 51 35
3 52 36 37
3 37 38 53
3 53 52 37
3 53 38 39
3 39 40 54
3 54 53 39
3 54 40 41
3 41 42 55
3 55 54 41
3 55 42 43
3 43 44 56
3 56 55 43
3 56 44 45
3 45 46 57
3 57 56 45
3 57 46 47
3 47 48 58
3 58 57 47
3 58 48 49
3 49 50 59
3 59 58 49
3 59 68 67
3 67 58 59
3 58 67 66
3 66 57 58
3 57 66 65
3 65 56 57
3 56 65 64
3 64 55 56
3 55 64 63
3 63 54 55
3 54 63 62
3 62 53 54
3 53 62 61
3 61 52 53
3 52 61 60
3 60 51 52
3 60 61 70
3 70 69 60
3 61 62 71
3 71 70 61
3 62 63 72
3 72 71 62
3 63 64 73
3 73 72 63
3 64 65 74
3 74 73 64
3 65 66 75
3 75 74 65
3 66 67 76
3 76 75 66
3 67 68 77
3 77 76 67
3 77 82 76
3 76 82 81
3 76 81 75
3 75 81 74
3 74 81 80
3 80 73 74
3 73 80 72
3 72 80 79
3 79 71 72
3 71 79 70
3 70 79 78
3 78 69 70
3 78 79 83
3 79 80 83
3 80 81 83
3 81 82 83
3 84 85 100
3 85 86 101
3 86 87 102
3 87 88 103
3 88 89 104
3 89 90 105
3 90 91 106
3 91 92 107
3 92 93 108
3 93 94 109
3 94 95 110
3 95 96 111
3 96 97 112
3 97 98 113
3 100 99 84
3 101 100 85
3 102 101 86
3 103 102 87
3 104 103 88
3 105 104 89
3 106 105 90
3 107 106 91
3 108 107 92
3 109 108 93
3 110 109 94
3 111 110 95
3 112 111 96
3 113 112 97
3 99 100 115
3 100 101 116
3 101 102 117
3 102 103 118
3 103 104 119
3 104 105 120
3 105 106 121
3 106 107 122
3 107 108 123
3 108 109 124
3 109 110 125
3 110 111 126
3 111 112 127
3 112 113 128
3 115 114 99
3 116 115 100
3 117 116 101
3 118 117 102
3 119 118 103
3 120 119 104
3 121 120 105
3 122 121 106
3 123 122 107
3 124 123 108
3 125 124 109
3 126 125 110
3 127 126 111
3 128 127 112
3 114 115 129
3 116 117 130
3 118 119 131
3 120 121 132
3 122 123 133
3 124 125 134
3 126 127 135
3 115 116 129
3 117 118 130
3 119 120 131
3 121 122 132
3 123 124 133
3 125 126 134
3 127 128 135
3 116 130 129
3 118 131 130
3 120 132 131
3 122 133 132
3 124 134 133
3 126 135 134
3 129 130 137
3 130 131 138
3 131 132 139
3 132 133 140
3 133 134 141
3 134 135 142
3 137 136 129
3 138 137 130
3 139 138 131
3 140 139 132
3 141 140 133
3 142 141 134
3 136 137 144
3 137 138 145
3 138 139 146
3 139 140 147
3 140 141 148
3 141 142 149
3 144 143 136
3 145 144 137
3 146 145 138
3 147 146 139
3 148 147 140
3 149 148 141
3 143 144 150
3 145 146 151
3 147 148 152
3 144 145 150
3 146 147 151
3 148 149 152
3 145 151 150
3 147 152 151
3 150 151 83
3 151 152 83
3 0 84 99
3 99 17 0
3 17 99 114
3 114 34 17
3 34 114 51
3 114 129 51
3 51 129 136
3 136 60 51
3 60 136 143
3 143 69 60
3 69 143 78
3 143 150 78
3 78 150 83
3 98 16 33
3 33 113 98
3 113 33 50
3 50 128 113
3 128 50 59
3 128 59 135
3 135 59 68
3 68 142 135
3 142 68 77
3 77 149 142
3 149 77 82
3 149 82 152
3 152 82 83
3 153 154 171
3 171 170 153
3 154 155 172
3 172 171 154
3 155 156 173
3 173 172 155
3 156 157 174
3 174 173 156
3 157 158 175
3 175 174 157
3 158 159 176
3 176 175 158
3 159 160 177
3 177 176 159
3 160 161 178
3 178 177 160
3 161 162 179
3 179 178 161
3 162 163 180
3 180 179 162
3 163 164 181
3 181 180 163
3 164 165 182
3 182 181 164
3 165 166 183
3 183 182 165
3 166 167 184
3 184 183 166
3 167 168 185
3 185 184 167
3 168 169 186
3 186 185 168
3 186 203 202
3 202 185 186
3 185 202 201
3 201 184 185
3 184 201 200
3 200 183 184
3 183 200 199
3 199 182 183
3 182 199 198
3 198 181 182
3 181 198 197
3 197 180 181
3 180 197 196
3 196 179 180
3 179 196 195
3 195 178 179
3 178 195 194
3 194 177 178
3 177 194 193
3 193 176 177
3 176 193 192
3 192 175 176
3 175 192 191
3 191 174 175
3 174 191 190
3 190 173 174
3 173 190 189
3 189 172 173
3 172 189 188
3 188 171 172
3 171 188 187
3 187 170 171
3 204 187 188
3 188 189 205
3 205 204 188
3 205 189 190
3 190 191 206
3 206 205 190
3 206 191 192
3 192 193 207
3 207 206 192
3 207 193 194
3 194 195 208
3 208 207 194
3 208 195 196
3 196 197 209
3 209 208 196
3 209 197 198
3 198 199 210
3 210 209 198
3 210 199 200
3 200 201 211
3 211 210 200
3 211 201 202
3 202 203 212
3 212 211 202
3 212 221 220
3 220 211 212
3 211 220 219
3 219 210 211
3 210 219 218
3 218 209 210
3 209 218 217
3 217 208 209
3 208 217 216
3 216 207 208
3 207 216 215
3 215 206 207
3 206 215 214
3 214 205 206
3 205 214 213
3 213 204 205
3 213 214 223
3 223 222 213
3 214 215 224
3 224 223 214
3 215 216 225
3 225 224 215
3 216 217 226
3 226 225 216
3 217 218 227
3 227 226 217
3 218 219 228
3 228 227 218
3 219 220 229
3 229 228 219
3 220 221 230
3 230 229 220
3 230 235 229
3 229 235 234
3 229 234 228
3 228 234 227
3 227 234 233
3 233 226 227
3 226 233 225
3 225 233 232
3 232 224 225
3 224 232 223
3 223 232 231
3 231 222 223
3 231 232 236
3 232 233 236
3 233 234 236
3 234 235 236
3 237 238 253
3 238 239 254
3 239 240 255
3 240 241 256
3 241 242 257
3 242 243 258
3 243 244 259
3 244 245 260
3 245 246 261
3 246 247 262
3 247 248 263
3 248 249 264
3 249 250 265
3 250 251 266
3 253 252 237
3 254 253 238
3 255 254 239
3 256 255 240
3 257 256 241
3 258 257 242
3 259 258 243
3 260 259 244
3 261 260 245
3 262 261 246
3 263 262 247
3 264 263 248
3 265 264 249
3 266 265 250
3 252 253 268
3 253 254 269
3 254 255 270
3 255 256 271
3 256 257 272
3 257 258 273
3 258 259 274
3 259 260 275
3 260 261 276
3 261 262 277
3 262 263 278
3 263 264 279
3 264 265 280
3 265 266 281
3 268 267 252
3 269 268 253
3 270 269 254
3 271 270 255
3 272 271 256
3 273 272 257
3 274 273 258
3 275 274 259
3 276 275 260
3 277 276 261
3 278 277 262
3 279 278 263
3 280 279 264
3 281 280 265
3 267 268 282
3 269 270 283
3 271 272 284
3 273 274 285
3 275 276 286
3 277 278 287
3 279 280 288
3 268 269 282
3 270 271 283
3 272 273 284
3 274 275 285
3 276 277 286
3 278 279 287
3 280 281 288
3 269 283 282
3 271 284 283
3 273 285 284
3 275 286 285
3 277 287 286
3 279 288 287
3 282 283 290
3 283 284 291
3 284 285 292
3 285 286 293
3 286 287 294
3 287 288 295
3 290 289 282
3 291 290 283
3 292 291 284
3 293 292 285
3 294 293 286
3 295 294 287
3 289 290 297
3 290 291 298
3 291 292 299
3 292 293 300
3 293 294 301
3 294 295 302
3 297 296 289
3 298 297 290
3 299 298 291
3 300 299 292
3 301 300 293
3 302 301 294
3 296 297 303
3 298 299 304
3 300 301 305
3 297 298 303
3 299 300 304
3 301 302 305
3 298 304 303
3 300 305 304
3 303 304 236
3 304 305 236
3 153 237 252
3 252 170 153
3 170 252 267
3 267 187 170
3 187 267 204
3 267 282 204
3 204 282 289
3 289 213 204
3 213 289 296
3 296 222 213
3 222 296 231
3 296 303 231
3 231 303 236
3 251 169 186
3 186 266 251
3 266 186 203
3 203 281 266
3 281 203 212
3 281 212 288
3 288 212 221
3 221 295 288
3 295 221 230
3 230 302 295
3 302 230 235
3 302 235 305
3 305 235 236
POINT_DATA 306
SCALARS index int
LOOKUP_TABLE default
1
1
1
1
1
1
1
1
1
1
1
1
1
1
1
1
1
1
1
1
1
1
1
1
1
1
1
1
1
1
1
1
1
1
1
1
1
1
1
1
1
1
1
1
1
1
1
1
1
1
1
1
1
1
1
1
1
1
1
1
1
1
1
1
1
1
1
1
1
1
1
1
1
1
1
1
1
1
1
1
1
1
1
1
1
1
1
1
1
1
1
1
1
1
1
1
1
1
1
1
1
1
1
1
1
1
1
1
1
1
1
1
1
1
1
1
1
1
1
1
1
1
1
1
1
1
1
1
1
1
1
1
1
1
1
1
1
1
1
1
1
1
1
1
1
1
1
1
1
1
1
1
1
2
2
2
2
2
2
2
2
2
2
2
2
2
2
2
2
2
2
2
2
2
2
2
2
2
2
2
2
2
2
2
2
2
2
2
2
2
2
2
2
2
2
2
2
2
2
2
2
2
2
2
2
2
2
2
2
2
2
2
2
2
2
2
2
2
2
2
2
2
2
2
2
2
2
2
2
2
2
2
2
2
2
2
2
2
2
2
2
2
2
2
2
2
2
2
2
2
2
2
2
2
2
2
2
2
2
2
2
2
2
2
2
2
2
2
2
2
2
2
2
2
2
2
2
2
2
2
2
2
2
2
2
2
2
2
2
2
2
2
2
2
2
2
2
2
2
2
2
2
2
2
2
2
SCALARS 1_damage_1p float
LOOKUP_TABLE default
1.1002e-05
1.7903e-05
1.1788e-05
1.1772e-05
1.1385e-05
2.0575e-05
1.4982e-05
1.8872e-05
1.0009e-05
1.8768e-05
1.3106e-05
1.2773e-05
1.0855e-05
4.7759e-07
3.62e-05
1.5302e-05
1.3888e-05
1.5679e-05
2.0761e-05
1.231e-05
1.2029e-05
2.6477e-05
2.0663e-05
1.3334e-05
2.4145e-05
1.0661e-05
2.3987e-05
1.9443e-05
1.1076e-05
1.1596e-05
1.1255e-05
2.0664e-05
2.2304e-05
1.6251e-05
1.7212e-05
1.5565e-05
1.6382e-05
1.6589e-05
3.0427e-05
2.3283e-05
1.5033e-05
1.0736e-05
1.4541e-05
1.2829e-05
1.1349e-05
1.3551e-05
1.1549e-05
1.1408e-05
2.4745e-05
1.2982e-05
2.4872e-05
1.4059e-05
2.5337e-05
1.0604e-05
2.2139e-05
1.3554e-05
2.222e-05
1.0621e-05
3.8646e-05
5.0759e-05
1.0701e-05
2.6619e-05
2.7026e-05
1.833e-05
2.8781e-05
1.0448e-05
1.1745e-05
3.0391e-05
0.00010048
1.4911e-05
1.9047e-05
3.0465e-05
1.2074e-05
2.8483e-05
1.2931e-05
1.1283e-05
2.551e-05
0.00016368
3.123e-05
2.4651e-05
2.1139e-05
1.1026e-05
7.6653e-05
0.00013825
1.1516e-05
3.0126e-19
1.0109e-05
1.2252e-05
5.2786e-05
0.00014966
1.0833e-05
0.00015885
0.00055014
2.5559e-05
2.7109e-05
1.2428e-05
0.00020294
1.8502e-05
1.4988e-05
1.3139e-05
3.0301e-06
1.0751e-05
1.8925e-05
6.0634e-05
0.0001596
1.1207e-05
0.00016176
1.0102e-05
2.5875e-05
2.7352e-05
1.2441e-05
0.00020478
1.9353e-05
1.6045e-05
1.0858e-05
1.0005e-05
1.0896e-05
1.0818e-05
0.00010018
0.00019123
1.2615e-05
0.00017033
1.0315e-05
2.5762e-05
2.732e-05
1.2708e-05
0.00021224
2.1358e-05
1.9879e-05
1.2499e-05
1.0611e-05
1.2882e-05
0.0001802
2.4176e-05
1.2366e-05
2.4401e-05
2.2719e-05
8.2281e-05
1.5505e-05
0.00017026
1.7919e-05
0.0004666
2.3015e-05
1.6699e-05
1.3332e-05
1.0999e-05
7.632e-05
0.0003602
0.00026525
1.0664e-05
0.00044663
3.3527e-05
0.00012039
0
0
0
0
0
0
0
0
0
0
0
0
0
0
0
0
0
0
0
0
0
0
0
0
0
0
0
0
0
0
0
0
0
0
0
0
0
0
0
0
0
0
0
0
0
0
0
0
0
0
0
0
0
0
0
0
0
0
0
0
0
0
0
0
0
0
0
0
0
0
0
0
0
0
0
0
0
0
0
0
0
0
0
0
0
0
0
0
0
0
0
0
0
0
0
0
0
0
0
0
0
0
0
0
0
0
0
0
0
0
0
0
0
0
0
0
0
0
0
0
0
0
0
0
0
0
0
0
0
0
0
0
0
0
0
0
0
0
0
0
0
0
0
0
0
0
0
0
0
0
0
0
0
SCALARS 2_plast_1p float
LOOKUP_TABLE default
0
0
0
0
0
0
0
0
0
0
0
0
0
0
0
0
0
0
0
0
0
0
0
0
0
0
0
0
0
0
0
0
0
0
0
0
0
0
0
0
0
0
0
0
0
0
0
0
0
0
0
0
0
0
0
0
0
0
0
0
0
0
0
0
0
0
0
0
0
0
0
0
0
0
0
0
0
0
0
0
0
0
0
0
0
0
0
0
0
0
0
0
0
0
0
0
0
0
0
0
0
0
0
0
0
0
0
0
0
0
0
0
0
0
0
0
0
0
0
0
0
0
0
0
0
0
0
0
0
0
0
0
0
0
0
0
0
0
0
0
0
0
0
0
0
0
0
0
0
0
0
0
0
2.6063e-05
4.0146e-05
5.4758e-05
3.2706e-05
7.1542e-05
0.00014619
0.00016887
0.00012291
4.9389e-05
1.7988e-05
2.5322e-05
4.6398e-05
1.6739e-05
1.3906e-05
1.0367e-05
1.3898e-05
2.5334e-05
2.5768e-05
3.986e-05
5.4489e-05
3.2185e-05
7.019e-05
0.0001425
0.00016525
0.00011944
4.8858e-05
1.765e-05
2.49e-05
4.601e-05
1.7101e-05
1.9527e-05
1.0753e-05
1.3591e-05
2.479e-05
2.4708e-05
3.7939e-05
5.2375e-05
3.0177e-05
6.5511e-05
0.00012884
0.00015059
0.000107
4.6194e-05
1.6219e-05
2.3196e-05
4.5163e-05
1.7684e-05
1.0655e-05
1.0967e-05
1.2528e-05
2.2806e-05
2.2157e-05
4.472e-05
5.3988e-05
0.00011233
3.7899e-05
1.8317e-05
1.7102e-05
1.1151e-05
1.7757e-05
2.0062e-05
3.1549e-05
3.6785e-05
7.1548e-05
2.5623e-05
1.1475e-05
1.3691e-05
1.075e-05
1.1018e-05
2.0258e-05
0.00010712
1.0868e-05
1.8881e-05
9.0121e-05
2.3966e-05
1.5414e-05
1.1027e-05
1.0784e-05
0.00021421
1.5748e-05
0.00013463
0.00012199
3.9544e-05
6.3612e-05
1.9617e-05
1.7105e-05
2.6979e-05
1.6562e-05
2.8504e-05
9.6467e-05
4.9864e-05
0.0002512
2.1296e-05
2.8397e-05
2.6401e-05
1.653e-05
0.00011577
2.6881e-05
2.7299e-05
1.0035e-05
2.0537e-05
1.5962e-05
1.623e-05
2.7923e-05
9.2859e-05
4.9103e-05
0.00024539
2.0787e-05
2.7819e-05
2.5844e-05
1.6107e-05
0.00011234
2.6351e-05
2.6758e-05
1.2157e-05
2.6282e-05
2.6705e-05
1.5476e-05
2.5782e-05
8.0915e-05
4.559e-05
0.00022344
1.8988e-05
2.5692e-05
2.3754e-05
1.4646e-05
9.8945e-05
2.4256e-05
2.4646e-05
5.8479e-05
1.2596e-05
6.0671e-05
0.00016612
2.0005e-05
1.069e-05
1.8784e-05
3.7851e-05
8.7425e-05
3.6724e-05
9.1397e-05
1.1949e-05
0.00014435
1.114e-05
0.00013717
6.1727e-05
0.0001158
1.9951e-05
6.4731e-05
3.1367e-05
2.5838e-05
3.7523e-05
1.1793e-05
1.9669e-05
