# vtk DataFile Version 2.0
0005 0003 01 1
ASCII
DATASET UNSTRUCTURED_GRID
POINTS 0005 float
64.079 0.0415 2.2192
17.734 -16.25 5.1639
13.638 -17.042 0.0
100.0 0.0 0.0
82.75 -2.67 0.26

CELLS 3 9
3 0 1 2
1 3
2 3 4

CELL_TYPES 3
5
1
3

POINT_DATA 5
VECTORS load float
0 0 0
0 0 0
0 0 0
-17.25 -2.67 0.26
0 0 0
SCALARS loadfac float 1
LOOKUP_TABLE default
0
0
0
3.84372363161
0
